 Gaussian 09, Revision E.01,
 Gaussian 09:  ES64L-G09RevE.01 30-Nov-2015

 ----------------------------------------------------
 # b3lyp/6-311g(d,p) scrf=(solvent=cyclohexane) em=gd3bj
 ----------------------------------------------------

 ---------
 structure
 ---------
 Symbolic Z-matrix:
 Charge =  0 Multiplicity = 1

                         Standard orientation:
 ---------------------------------------------------------------------
 Center     Atomic      Atomic             Coordinates (Angstroms)
 Number     Number       Type             X           Y           Z
 ---------------------------------------------------------------------
      1          6           0        4.425141   -0.340205    1.973045
      2          6           0        3.477890   -1.085082    1.209206
      3          6           0        2.102757   -0.840506    1.422220
      4          6           0        1.683850    0.063019    2.423383
      5          6           0        2.676986    0.804736    3.122655
      6          6           0        4.022648    0.595647    2.902700
      7          6           0        0.302426    0.152317    2.729901
      8          6           0       -0.636418   -0.581284    2.040060
      9          6           0       -0.205215   -1.474615    1.058321
     10          6           0        1.162123   -1.596496    0.751022
     11          6           0       -1.137268   -2.304805    0.389514
     12          6           0       -2.591523   -2.261824    0.804386
     13          6           0       -3.045154   -1.406697    1.758064
     14          6           0       -2.104710   -0.414828    2.408631
     15          6           0        3.900130   -2.079884    0.307734
     16          6           0        2.957533   -2.800179   -0.394479
     17          6           0        1.588258   -2.606521   -0.128632
     18          6           0       -0.714415   -3.203068   -0.576566
     19          6           0        0.637643   -3.464450   -0.716094
     20          1           0        5.506007   -0.496504    1.854474
     21          1           0        4.774556    1.164888    3.473330
     22          1           0        2.387223    1.548439    3.878703
     23         16           0       -0.232220    1.225284    4.068103
     24          6           0        0.314209    0.296973    5.531544
     25          6           0       -0.420846   -1.039084    5.648170
     26          6           0       -4.508205   -1.311377    2.202662
     27          6           0       -5.326327   -2.518984    1.724116
     28          6           0       -4.970479   -2.893873    0.284835
     29          6           0       -3.505642   -3.315141    0.180902
     30          6           0       -4.665773   -1.113642    3.725748
     31          6           0       -6.124152   -1.013424    4.204841
     32          6           0       -6.263143   -0.711944    5.701957
     33          6           0       -7.726859   -0.637128    6.145861
     34          6           0       -3.137776   -3.543072   -1.269487
     35          6           0       -1.678349   -3.950367   -1.488494
     36          6           0        1.107469   -4.732889   -1.435204
     37          6           0        0.024716   -5.532118   -2.179299
     38          6           0       -1.329060   -5.442351   -1.467579
     39          6           0        3.437013   -3.839000   -1.409805
     40          6           0        2.297082   -4.335142   -2.302376
     41          6           0        5.374809   -2.411394    0.153324
     42          6           0        5.746871   -3.413979    1.254302
     43          6           0        7.182346   -3.941189    1.182389
     44          6           0        7.458282   -4.956754    2.296894
     45          6           0        8.860879   -5.555753    2.228311
     46          1           0       -2.190867   -0.543018    3.500308
     47          1           0       -2.448979    0.607294    2.176426
     48          1           0        0.114305    0.916929    6.420487
     49          1           0        1.402830    0.136064    5.484574
     50          1           0       -0.228787   -1.681539    4.774783
     51          1           0       -1.508202   -0.881399    5.724327
     52          1           0       -0.102703   -1.595657    6.543606
     53          1           0       -4.923767   -0.412984    1.707062
     54          1           0       -6.406149   -2.302678    1.805084
     55          1           0       -5.126482   -3.387021    2.377371
     56          1           0       -5.158767   -2.026929   -0.371476
     57          1           0       -5.621571   -3.709527   -0.076000
     58          1           0       -3.371442   -4.259361    0.741288
     59          1           0       -4.164407   -0.182039    4.041743
     60          1           0       -4.163702   -1.938025    4.262648
     61          1           0       -6.660418   -1.953937    3.988581
     62          1           0       -6.635418   -0.221060    3.629150
     63          1           0       -5.760641    0.241768    5.941647
     64          1           0       -5.746371   -1.495713    6.283574
     65          1           0       -8.247086   -1.585843    5.935121
     66          1           0       -8.255233    0.167207    5.609100
     67          1           0       -7.813451   -0.437004    7.225985
     68          1           0       -3.820154   -4.279511   -1.728737
     69          1           0       -3.304531   -2.595831   -1.811405
     70          1           0       -1.461730   -3.625330   -2.525899
     71          1           0        1.487868   -5.412077   -0.645295
     72          1           0        0.358361   -6.576176   -2.308943
     73          1           0       -0.101436   -5.129490   -3.200709
     74          1           0       -1.277616   -5.840768   -0.440852
     75          1           0       -2.083692   -6.037419   -2.009085
     76          1           0        4.219139   -3.425056   -2.066367
     77          1           0        3.880108   -4.701071   -0.878927
     78          1           0        2.641876   -5.190188   -2.908510
     79          1           0        2.001909   -3.547595   -3.015381
     80          1           0        6.013626   -1.515618    0.209075
     81          1           0        5.622500   -2.845461   -0.825504
     82          1           0        5.060944   -4.279691    1.200918
     83          1           0        5.590209   -2.957056    2.247781
     84          1           0        7.896507   -3.101846    1.256836
     85          1           0        7.351574   -4.420469    0.201201
     86          1           0        6.708453   -5.766242    2.237184
     87          1           0        7.318525   -4.470522    3.279328
     88          1           0        9.030525   -6.272259    3.048282
     89          1           0        9.626674   -4.766627    2.303994
     90          1           0        9.013535   -6.088686    1.275548
     91          6           0       -4.270141    2.442933    0.479556
     92          6           0       -3.383655    1.802335   -0.436538
     93          6           0       -1.996897    2.031631   -0.292716
     94          6           0       -1.502126    2.858128    0.741659
     95          6           0       -2.436201    3.420103    1.656527
     96          6           0       -3.794600    3.224482    1.512666
     97          6           0       -0.105897    3.099837    0.817145
     98          6           0        0.769976    2.520995   -0.074202
     99          6           0        0.263441    1.710722   -1.091466
    100          6           0       -1.118871    1.481615   -1.203904
    101          6           0        1.136022    1.110927   -2.030924
    102          6           0        2.614072    1.424662   -1.970605
    103          6           0        3.138649    2.235355   -1.015693
    104          6           0        2.258670    2.804567    0.077729
    105          6           0       -3.875706    0.990179   -1.476094
    106          6           0       -3.000052    0.499692   -2.423521
    107          6           0       -1.621459    0.769013   -2.306443
    108          6           0        0.635834    0.304316   -3.039212
    109          6           0       -0.727858    0.283777   -3.281149
    110          1           0       -5.359740    2.333776    0.392566
    111          1           0       -4.500539    3.692173    2.218468
    112          1           0       -2.088249    4.041134    2.494486
    113         16           0        0.549789    4.173547    2.107160
    114          6           0        0.039051    5.819946    1.530083
    115          6           0        0.845221    6.249703    0.304530
    116          6           0        4.622747    2.596164   -0.911275
    117          6           0        5.402747    2.195161   -2.171399
    118          6           0        4.947444    0.832703   -2.699407
    119          6           0        3.475520    0.881282   -3.109772
    120          6           0        4.828911    4.091521   -0.588097
    121          6           0        6.287958    4.578359   -0.569361
    122          6           0        6.406119    6.045697   -0.137515
    123          6           0        7.840089    6.577638   -0.199301
    124          6           0        3.001271   -0.496890   -3.520663
    125          6           0        1.525097   -0.555666   -3.924292
    126          6           0       -1.266920   -0.226330   -4.620423
    127          6           0       -0.241006   -0.891394   -5.554037
    128          6           0        1.159712   -0.294765   -5.388662
    129          6           0       -3.553522   -0.312392   -3.598419
    130          6           0       -2.465695   -1.115223   -4.315835
    131          6           0       -5.362689    0.684286   -1.585573
    132          6           0       -6.071371    1.690561   -2.502441
    133          6           0       -7.518058    1.275620   -2.794433
    134          6           0       -8.233128    2.188565   -3.794730
    135          6           0       -9.654778    1.714327   -4.103816
    136          1           0        2.391494    3.899453    0.082484
    137          1           0        2.624768    2.433773    1.049496
    138          1           0        0.201256    6.535976    2.352211
    139          1           0       -1.039174    5.818426    1.305840
    140          1           0        0.712422    5.544698   -0.530251
    141          1           0        1.919591    6.299664    0.541585
    142          1           0        0.536333    7.243562   -0.052991
    143          1           0        5.030299    2.007041   -0.067765
    144          1           0        6.485384    2.184585   -1.954037
    145          1           0        5.247318    2.950121   -2.962845
    146          1           0        5.095979    0.069507   -1.915075
    147          1           0        5.567203    0.525920   -3.560863
    148          1           0        3.376167    1.568160   -3.970956
    149          1           0        4.402945    4.322411    0.404472
    150          1           0        4.269509    4.703307   -1.318602
    151          1           0        6.738804    4.465919   -1.571396
    152          1           0        6.880645    3.946222    0.115696
    153          1           0        6.017305    6.156665    0.890220
    154          1           0        5.762322    6.664808   -0.787523
    155          1           0        8.238720    6.506716   -1.224388
    156          1           0        8.504814    6.000958    0.463961
    157          1           0        7.890677    7.635029    0.107845
    158          1           0        3.640829   -0.899949   -4.325141
    159          1           0        3.136175   -1.174290   -2.659969
    160          1           0        1.239233   -1.611109   -3.739902
    161          1           0       -1.639845    0.665031   -5.164426
    162          1           0       -0.597190   -0.830770   -6.596526
    163          1           0       -0.175295   -1.970688   -5.324933
    164          1           0        1.179985    0.779446   -5.637131
    165          1           0        1.867124   -0.799321   -6.067445
    166          1           0       -4.330499   -1.023250   -3.282394
    167          1           0       -4.022272    0.372074   -4.328570
    168          1           0       -2.872575   -1.548798   -5.246396
    169          1           0       -2.146575   -1.963100   -3.689721
    170          1           0       -5.852619    0.673334   -0.598966
    171          1           0       -5.543044   -0.334651   -1.958777
    172          1           0       -5.528977    1.773949   -3.460348
    173          1           0       -6.055959    2.695784   -2.046755
    174          1           0       -8.091738    1.245797   -1.850903
    175          1           0       -7.518549    0.245461   -3.195169
    176          1           0       -7.651334    2.230407   -4.732691
    177          1           0       -8.265669    3.218686   -3.399118
    178          1           0      -10.156053    2.382004   -4.823061
    179          1           0      -10.265875    1.687619   -3.187405
    180          1           0       -9.646314    0.700970   -4.537499
 ---------------------------------------------------------------------

 SCF Done:  E(RB3LYP) =  -3979.60006330     A.U. after   14 cycles

 The electronic state is 1-A.
 Alpha  occ. eigenvalues --  -88.85513 -88.85489 -10.20396 -10.20388 -10.19735
 Alpha  occ. eigenvalues --  -10.19726 -10.18991 -10.18955 -10.18921 -10.18834
 Alpha  occ. eigenvalues --  -10.18827 -10.18806 -10.18757 -10.18648 -10.18593
 Alpha  occ. eigenvalues --  -10.18529 -10.18520 -10.18484 -10.18441 -10.18434
 Alpha  occ. eigenvalues --  -10.18416 -10.18391 -10.18364 -10.18315 -10.18296
 Alpha  occ. eigenvalues --  -10.18272 -10.18174 -10.18151 -10.18134 -10.18128
 Alpha  occ. eigenvalues --  -10.18125 -10.18102 -10.18037 -10.18036 -10.18028
 Alpha  occ. eigenvalues --  -10.18024 -10.18003 -10.18000 -10.17986 -10.17971
 Alpha  occ. eigenvalues --  -10.17965 -10.17958 -10.17954 -10.17950 -10.17939
 Alpha  occ. eigenvalues --  -10.17939 -10.17908 -10.17882 -10.17882 -10.17873
 Alpha  occ. eigenvalues --  -10.17843 -10.17837 -10.17820 -10.17786 -10.17767
 Alpha  occ. eigenvalues --  -10.17763 -10.17755 -10.17724 -10.17713 -10.17707
 Alpha  occ. eigenvalues --  -10.17593 -10.17590 -10.17587 -10.17559 -10.17468
 Alpha  occ. eigenvalues --  -10.17428 -10.17404 -10.17404 -10.17378 -10.17362
 Alpha  occ. eigenvalues --  -10.17356 -10.17332 -10.17316 -10.17300 -10.17265
 Alpha  occ. eigenvalues --  -10.17261 -10.17238 -10.17212 -10.17190 -10.17159
 Alpha  occ. eigenvalues --  -10.17157 -10.17071 -10.17064 -10.16996  -7.91565
 Alpha  occ. eigenvalues --   -7.91551  -5.88094  -5.88078  -5.87712  -5.87695
 Alpha  occ. eigenvalues --   -5.87032  -5.87020  -0.89950  -0.89755  -0.86481
 Alpha  occ. eigenvalues --   -0.86368  -0.85673  -0.85528  -0.83410  -0.83225
 Alpha  occ. eigenvalues --   -0.82523  -0.82378  -0.81370  -0.81262  -0.80451
 Alpha  occ. eigenvalues --   -0.80371  -0.79267  -0.79179  -0.78628  -0.78558
 Alpha  occ. eigenvalues --   -0.78004  -0.77901  -0.77834  -0.77747  -0.76689
 Alpha  occ. eigenvalues --   -0.76587  -0.74960  -0.74909  -0.74399  -0.74325
 Alpha  occ. eigenvalues --   -0.73074  -0.72992  -0.72761  -0.72645  -0.72178
 Alpha  occ. eigenvalues --   -0.72132  -0.71383  -0.71260  -0.69932  -0.69863
 Alpha  occ. eigenvalues --   -0.68525  -0.68404  -0.67328  -0.67233  -0.65803
 Alpha  occ. eigenvalues --   -0.65690  -0.65419  -0.65364  -0.63267  -0.63173
 Alpha  occ. eigenvalues --   -0.62337  -0.62214  -0.61978  -0.61870  -0.61473
 Alpha  occ. eigenvalues --   -0.61433  -0.60775  -0.60687  -0.59149  -0.59102
 Alpha  occ. eigenvalues --   -0.58999  -0.58896  -0.58341  -0.58267  -0.57553
 Alpha  occ. eigenvalues --   -0.57493  -0.57196  -0.57160  -0.56728  -0.56647
 Alpha  occ. eigenvalues --   -0.56138  -0.56001  -0.55156  -0.55061  -0.54545
 Alpha  occ. eigenvalues --   -0.54397  -0.51134  -0.51020  -0.50590  -0.50452
 Alpha  occ. eigenvalues --   -0.50308  -0.50189  -0.49955  -0.49887  -0.48442
 Alpha  occ. eigenvalues --   -0.48300  -0.47436  -0.47340  -0.46889  -0.46772
 Alpha  occ. eigenvalues --   -0.46674  -0.46485  -0.46329  -0.46178  -0.45325
 Alpha  occ. eigenvalues --   -0.45236  -0.44967  -0.44682  -0.44643  -0.44529
 Alpha  occ. eigenvalues --   -0.44346  -0.44197  -0.43958  -0.43597  -0.43446
 Alpha  occ. eigenvalues --   -0.43350  -0.43036  -0.42831  -0.42805  -0.42733
 Alpha  occ. eigenvalues --   -0.42494  -0.42451  -0.42407  -0.42110  -0.41960
 Alpha  occ. eigenvalues --   -0.41824  -0.41648  -0.41485  -0.41318  -0.41273
 Alpha  occ. eigenvalues --   -0.41113  -0.41066  -0.40892  -0.40709  -0.40545
 Alpha  occ. eigenvalues --   -0.40343  -0.40334  -0.40201  -0.40003  -0.39930
 Alpha  occ. eigenvalues --   -0.39551  -0.39337  -0.39045  -0.38986  -0.38894
 Alpha  occ. eigenvalues --   -0.38802  -0.38625  -0.38511  -0.38289  -0.38145
 Alpha  occ. eigenvalues --   -0.37700  -0.37591  -0.37535  -0.37400  -0.37110
 Alpha  occ. eigenvalues --   -0.36992  -0.36732  -0.36643  -0.36486  -0.36385
 Alpha  occ. eigenvalues --   -0.36327  -0.36146  -0.35992  -0.35952  -0.35767
 Alpha  occ. eigenvalues --   -0.35702  -0.35589  -0.35493  -0.35294  -0.35293
 Alpha  occ. eigenvalues --   -0.35221  -0.34959  -0.34854  -0.34507  -0.34403
 Alpha  occ. eigenvalues --   -0.34242  -0.33968  -0.33728  -0.33631  -0.33564
 Alpha  occ. eigenvalues --   -0.33393  -0.33207  -0.33140  -0.33048  -0.32992
 Alpha  occ. eigenvalues --   -0.32955  -0.32848  -0.32764  -0.32437  -0.32408
 Alpha  occ. eigenvalues --   -0.32246  -0.32223  -0.32157  -0.32111  -0.32035
 Alpha  occ. eigenvalues --   -0.32009  -0.31742  -0.31735  -0.31580  -0.31440
 Alpha  occ. eigenvalues --   -0.31410  -0.31347  -0.31138  -0.31001  -0.30443
 Alpha  occ. eigenvalues --   -0.30414  -0.30044  -0.29870  -0.29775  -0.29726
 Alpha  occ. eigenvalues --   -0.29145  -0.28953  -0.28182  -0.28088  -0.27834
 Alpha  occ. eigenvalues --   -0.27743  -0.27107  -0.26941  -0.25831  -0.25435
 Alpha  occ. eigenvalues --   -0.23696  -0.23458  -0.23219  -0.22830  -0.21394
 Alpha  occ. eigenvalues --   -0.21140  -0.20644  -0.20161  -0.16725  -0.16434
 Alpha virt. eigenvalues --   -0.05601  -0.05413  -0.01465  -0.01115  -0.00311
 Alpha virt. eigenvalues --    0.00503   0.00744   0.01232   0.03824   0.04241
 Alpha virt. eigenvalues --    0.05712   0.06504   0.06756   0.07086   0.07525

 Mulliken charges:
               1
     1  C   -0.248690
     2  C    0.120983
     3  C    0.002999
     4  C    0.177781
     5  C   -0.270528
     6  C   -0.120099
     7  C   -0.300990
     8  C    0.116303
     9  C    0.068911
    10  C    0.050685
    11  C   -0.017227
    12  C    0.070534
    13  C    0.071073
    14  C   -0.464030
    15  C    0.024994
    16  C    0.021996
    17  C    0.077351
    18  C    0.012584
    19  C   -0.001815
    20  H    0.128839
    21  H    0.130599
    22  H    0.158743
    23  S    0.101292
    24  C   -0.414658
    25  C   -0.445226
    26  C   -0.142217
    27  C   -0.277092
    28  C   -0.283466
    29  C   -0.154829
    30  C   -0.279069
    31  C   -0.253259
    32  C   -0.248448
    33  C   -0.441135
    34  C   -0.299800
    35  C   -0.179353
    36  C   -0.145069
    37  C   -0.282823
    38  C   -0.261151
    39  C   -0.365142
    40  C   -0.289049
    41  C   -0.355033
    42  C   -0.259087
    43  C   -0.245133
    44  C   -0.244892
    45  C   -0.440891
    46  H    0.190859
    47  H    0.200323
    48  H    0.172377
    49  H    0.174216
    50  H    0.163488
    51  H    0.156533
    52  H    0.142973
    53  H    0.143014
    54  H    0.131669
    55  H    0.128789
    56  H    0.142226
    57  H    0.122589
    58  H    0.133727
    59  H    0.148018
    60  H    0.129694
    61  H    0.133704
    62  H    0.124910
    63  H    0.132129
    64  H    0.129658
    65  H    0.140058
    66  H    0.140426
    67  H    0.140841
    68  H    0.124730
    69  H    0.148669
    70  H    0.145202
    71  H    0.142486
    72  H    0.130792
    73  H    0.133144
    74  H    0.139506
    75  H    0.128815
    76  H    0.156386
    77  H    0.152809
    78  H    0.127373
    79  H    0.152953
    80  H    0.144011
    81  H    0.142788
    82  H    0.136272
    83  H    0.141461
    84  H    0.126642
    85  H    0.125140
    86  H    0.129532
    87  H    0.131865
    88  H    0.140810
    89  H    0.140603
    90  H    0.139773
    91  C   -0.255915
    92  C    0.111715
    93  C   -0.005682
    94  C    0.175464
    95  C   -0.256219
    96  C   -0.120251
    97  C   -0.302365
    98  C    0.119842
    99  C    0.067453
   100  C    0.051799
   101  C   -0.020511
   102  C    0.071871
   103  C    0.073645
   104  C   -0.466139
   105  C    0.034025
   106  C    0.028785
   107  C    0.076671
   108  C    0.022319
   109  C   -0.006278
   110  H    0.128816
   111  H    0.129642
   112  H    0.153723
   113  S    0.096636
   114  C   -0.414014
   115  C   -0.442322
   116  C   -0.137967
   117  C   -0.277902
   118  C   -0.278690
   119  C   -0.156004
   120  C   -0.279079
   121  C   -0.253498
   122  C   -0.247490
   123  C   -0.441631
   124  C   -0.297687
   125  C   -0.186900
   126  C   -0.142825
   127  C   -0.283098
   128  C   -0.260360
   129  C   -0.361375
   130  C   -0.295910
   131  C   -0.367886
   132  C   -0.260974
   133  C   -0.243373
   134  C   -0.246065
   135  C   -0.441353
   136  H    0.188360
   137  H    0.199551
   138  H    0.170885
   139  H    0.175807
   140  H    0.161807
   141  H    0.155258
   142  H    0.142282
   143  H    0.138861
   144  H    0.130897
   145  H    0.128424
   146  H    0.140439
   147  H    0.121548
   148  H    0.132487
   149  H    0.145839
   150  H    0.129819
   151  H    0.133270
   152  H    0.125479
   153  H    0.131587
   154  H    0.129783
   155  H    0.140292
   156  H    0.140474
   157  H    0.140790
   158  H    0.122168
   159  H    0.151583
   160  H    0.147795
   161  H    0.142418
   162  H    0.130579
   163  H    0.131754
   164  H    0.138857
   165  H    0.127711
   166  H    0.152978
   167  H    0.154453
   168  H    0.126092
   169  H    0.159938
   170  H    0.145121
   171  H    0.148742
   172  H    0.139141
   173  H    0.139657
   174  H    0.127007
   175  H    0.124994
   176  H    0.129203
   177  H    0.131538
   178  H    0.140934
   179  H    0.141081
   180  H    0.140224
 Sum of Mulliken charges =  -0.00000

 Dipole moment (field-independent basis, Debye):
    X=             -0.0694    Y=             -2.5827    Z=             -2.4887  Tot=              3.5873
 Quadrupole moment (field-independent basis, Debye-Ang):
   XX=           -496.7015   YY=           -502.9042   ZZ=           -502.4741
   XY=             -1.0012   XZ=              0.8615   YZ=              4.3979

 Normal termination of Gaussian 09 at Mon Dec 19 10:13:51 2022.
