 Gaussian 09, Revision E.01,
 Gaussian 09:  ES64L-G09RevE.01 30-Nov-2015

 -----------------------------------------------------------
 # b3lyp/6-311g(d,p) scrf=(smd,solvent=cyclohexane) em=gd3bj
 -----------------------------------------------------------

 ---
 as1
 ---
 Symbolic Z-matrix:
 Charge =  0 Multiplicity = 1

                         Standard orientation:
 ---------------------------------------------------------------------
 Center     Atomic      Atomic             Coordinates (Angstroms)
 Number     Number       Type             X           Y           Z
 ---------------------------------------------------------------------
      1          6           0       -3.429157   -2.887064   -0.783264
      2          6           0       -2.914455   -1.559554   -0.712511
      3          6           0       -1.513008   -1.386385   -0.750734
      4          6           0       -0.648695   -2.492180   -0.913672
      5          6           0       -1.231010   -3.783590   -1.047267
      6          6           0       -2.595535   -3.971256   -0.966447
      7          6           0        0.753103   -2.271302   -0.938468
      8          6           0        1.279987   -1.005948   -0.803177
      9          6           0        0.411182    0.071678   -0.616932
     10          6           0       -0.980464   -0.120826   -0.616585
     11          6           0        0.920654    1.382462   -0.459473
     12          6           0        2.412041    1.573385   -0.309707
     13          6           0        3.286268    0.539529   -0.431311
     14          6           0        2.790603   -0.822647   -0.878915
     15          6           0       -3.775717   -0.448457   -0.631113
     16          6           0       -3.236207    0.816950   -0.524077
     17          6           0       -1.838269    0.977718   -0.443663
     18          6           0        0.065169    2.470144   -0.384586
     19          6           0       -1.293507    2.258311   -0.225368
     20          1           0       -4.507533   -3.085729   -0.723235
     21          1           0       -3.021264   -4.983694   -1.051183
     22          1           0       -0.597538   -4.668786   -1.200101
     23         16           0        1.862986   -3.670478   -1.172855
     24          6           0        1.832991   -4.459348    0.465340
     25          6           0        2.611754   -3.634115    1.491003
     26          6           0        4.799569    0.671045   -0.240470
     27          6           0        5.171453    2.007905    0.416374
     28          6           0        4.358257    3.163800   -0.166450
     29          6           0        2.866854    2.970830    0.104401
     30          6           0        5.405057   -0.506782    0.554912
     31          6           0        6.909305   -0.381607    0.852645
     32          6           0        7.495140   -1.621319    1.540115
     33          6           0        8.988258   -1.472009    1.843381
     34          6           0        2.071729    4.018387   -0.649462
     35          6           0        0.556002    3.910503   -0.461671
     36          6           0       -2.212151    3.395914    0.227532
     37          6           0       -1.568276    4.789405    0.320417
     38          6           0       -0.082528    4.707169    0.681207
     39          6           0       -4.180699    2.019066   -0.460531
     40          6           0       -3.444602    3.344909   -0.669195
     41          6           0       -5.287311   -0.628898   -0.644893
     42          6           0       -5.822952   -0.773725    0.786419
     43          6           0       -7.355031   -0.829128    0.838634
     44          6           0       -7.919932   -0.842341    2.263334
     45          6           0       -9.449272   -0.896646    2.288510
     46          1           0        3.257492   -1.584316   -0.236248
     47          1           0        3.148428   -1.008126   -1.908224
     48          1           0        2.285617   -5.459965    0.368391
     49          1           0        0.790051   -4.601870    0.789760
     50          1           0        2.158408   -2.640063    1.629330
     51          1           0        3.654495   -3.492985    1.165768
     52          1           0        2.633546   -4.128153    2.474918
     53          1           0        5.247619    0.661431   -1.252587
     54          1           0        6.250999    2.201988    0.289470
     55          1           0        4.983188    1.953583    1.503380
     56          1           0        4.538881    3.217561   -1.254782
     57          1           0        4.695157    4.126820    0.257054
     58          1           0        2.687733    3.085181    1.189400
     59          1           0        5.271546   -1.449991   -0.002427
     60          1           0        4.864114   -0.626024    1.510706
     61          1           0        7.100793    0.496316    1.494387
     62          1           0        7.452458   -0.204038   -0.093043
     63          1           0        7.339534   -2.507847    0.900358
     64          1           0        6.948763   -1.810276    2.481100
     65          1           0        9.167014   -0.611567    2.508313
     66          1           0        9.562024   -1.310072    0.916500
     67          1           0        9.391430   -2.370694    2.337138
     68          1           0        2.423480    5.031491   -0.386655
     69          1           0        2.282665    3.896749   -1.727793
     70          1           0        0.138518    4.349791   -1.391812
     71          1           0       -2.537618    3.144102    1.257161
     72          1           0       -2.134485    5.412113    1.033865
     73          1           0       -1.650336    5.303944   -0.654323
     74          1           0        0.073982    4.222589    1.659584
     75          1           0        0.347364    5.720784    0.748264
     76          1           0       -4.965572    1.955888   -1.229499
     77          1           0       -4.685411    2.041464    0.521666
     78          1           0       -4.122101    4.188119   -0.449845
     79          1           0       -3.147414    3.448907   -1.727718
     80          1           0       -5.589358   -1.496969   -1.250951
     81          1           0       -5.800453    0.209092   -1.137828
     82          1           0       -5.478673    0.079146    1.397427
     83          1           0       -5.405225   -1.681610    1.255668
     84          1           0       -7.708522   -1.722896    0.294389
     85          1           0       -7.765048    0.046671    0.303899
     86          1           0       -7.578722    0.060763    2.799739
     87          1           0       -7.513351   -1.708434    2.814557
     88          1           0       -9.838108   -0.873561    3.319374
     89          1           0       -9.811974   -1.821438    1.811395
     90          1           0       -9.883963   -0.041623    1.745280
 ---------------------------------------------------------------------

 SCF Done:  E(RB3LYP) =  -1990.20066862     A.U. after   13 cycles

 The electronic state is 1-A.
 Alpha  occ. eigenvalues --  -88.82982 -10.19392 -10.19052 -10.18255 -10.17876
 Alpha  occ. eigenvalues --  -10.17748 -10.17467 -10.17412 -10.17388 -10.17283
 Alpha  occ. eigenvalues --  -10.17210 -10.17200 -10.17183 -10.17173 -10.17063
 Alpha  occ. eigenvalues --  -10.16978 -10.16967 -10.16961 -10.16943 -10.16927
 Alpha  occ. eigenvalues --  -10.16916 -10.16856 -10.16782 -10.16456 -10.16437
 Alpha  occ. eigenvalues --  -10.16335 -10.16332 -10.16330 -10.16323 -10.16192
 Alpha  occ. eigenvalues --  -10.16126 -10.16122 -10.16100 -10.16098 -10.15997
 Alpha  occ. eigenvalues --  -10.15939 -10.15924 -10.15892 -10.15860 -10.15837
 Alpha  occ. eigenvalues --  -10.15476 -10.15472  -7.91688  -5.88085  -5.87709
 Alpha  occ. eigenvalues --   -5.87046  -0.90651  -0.87085  -0.86338  -0.83977
 Alpha  occ. eigenvalues --   -0.83016  -0.81953  -0.80784  -0.79662  -0.79245
 Alpha  occ. eigenvalues --   -0.78550  -0.78316  -0.77141  -0.75446  -0.74859
 Alpha  occ. eigenvalues --   -0.73655  -0.73303  -0.72740  -0.71805  -0.70406
 Alpha  occ. eigenvalues --   -0.69127  -0.67643  -0.66441  -0.65846  -0.63726
 Alpha  occ. eigenvalues --   -0.62973  -0.62514  -0.61939  -0.61208  -0.59561
 Alpha  occ. eigenvalues --   -0.59355  -0.58909  -0.57893  -0.57230  -0.57097
 Alpha  occ. eigenvalues --   -0.56557  -0.55648  -0.54933  -0.51801  -0.51244
 Alpha  occ. eigenvalues --   -0.50886  -0.50574  -0.48900  -0.47827  -0.47188
 Alpha  occ. eigenvalues --   -0.47134  -0.46780  -0.45857  -0.45369  -0.45273
 Alpha  occ. eigenvalues --   -0.44665  -0.44434  -0.43923  -0.43457  -0.43294
 Alpha  occ. eigenvalues --   -0.43106  -0.42724  -0.42492  -0.42009  -0.41783
 Alpha  occ. eigenvalues --   -0.41568  -0.41416  -0.40944  -0.40774  -0.40458
 Alpha  occ. eigenvalues --   -0.40072  -0.39630  -0.39306  -0.39121  -0.38950
 Alpha  occ. eigenvalues --   -0.38270  -0.38044  -0.37585  -0.37078  -0.36960
 Alpha  occ. eigenvalues --   -0.36771  -0.36406  -0.36322  -0.36092  -0.35841
 Alpha  occ. eigenvalues --   -0.35570  -0.35274  -0.34827  -0.34409  -0.34039
 Alpha  occ. eigenvalues --   -0.33766  -0.33718  -0.33471  -0.33142  -0.32680
 Alpha  occ. eigenvalues --   -0.32638  -0.32523  -0.32291  -0.32206  -0.32010
 Alpha  occ. eigenvalues --   -0.31661  -0.31580  -0.31040  -0.30575  -0.30380
 Alpha  occ. eigenvalues --   -0.29867  -0.29000  -0.28664  -0.27762  -0.26406
 Alpha  occ. eigenvalues --   -0.24310  -0.24027  -0.22200  -0.21624  -0.17593
 Alpha virt. eigenvalues --   -0.06535  -0.02305  -0.00973  -0.00287   0.02566
 Alpha virt. eigenvalues --    0.03652   0.04114   0.04828   0.04861   0.05331
 Alpha virt. eigenvalues --    0.05526   0.05664   0.05801   0.05897   0.06228

 Mulliken charges:
               1
     1  C   -0.118245
     2  C    0.001398
     3  C   -0.011416
     4  C    0.123347
     5  C   -0.138675
     6  C   -0.079496
     7  C   -0.382977
     8  C   -0.024835
     9  C    0.120578
    10  C    0.011809
    11  C   -0.047751
    12  C    0.020597
    13  C   -0.146253
    14  C   -0.071655
    15  C   -0.040376
    16  C   -0.126150
    17  C    0.153116
    18  C   -0.017509
    19  C   -0.079277
    20  H    0.095700
    21  H    0.092745
    22  H    0.118439
    23  S    0.045757
    24  C   -0.367308
    25  C   -0.314839
    26  C   -0.161267
    27  C   -0.192595
    28  C   -0.174189
    29  C   -0.198633
    30  C   -0.207466
    31  C   -0.208307
    32  C   -0.224887
    33  C   -0.300252
    34  C   -0.132295
    35  C   -0.230957
    36  C   -0.187639
    37  C   -0.170731
    38  C   -0.169408
    39  C   -0.181550
    40  C   -0.173087
    41  C   -0.262723
    42  C   -0.170375
    43  C   -0.216392
    44  C   -0.223021
    45  C   -0.300009
    46  H    0.179999
    47  H    0.151461
    48  H    0.153688
    49  H    0.158005
    50  H    0.129962
    51  H    0.125053
    52  H    0.111677
    53  H    0.122296
    54  H    0.117418
    55  H    0.106567
    56  H    0.103227
    57  H    0.105633
    58  H    0.126623
    59  H    0.119797
    60  H    0.109953
    61  H    0.113434
    62  H    0.101790
    63  H    0.106137
    64  H    0.105637
    65  H    0.103949
    66  H    0.104261
    67  H    0.108670
    68  H    0.105874
    69  H    0.111052
    70  H    0.134607
    71  H    0.136598
    72  H    0.110571
    73  H    0.106199
    74  H    0.112122
    75  H    0.105987
    76  H    0.131988
    77  H    0.128937
    78  H    0.103099
    79  H    0.114678
    80  H    0.122535
    81  H    0.119887
    82  H    0.109733
    83  H    0.115149
    84  H    0.104447
    85  H    0.102814
    86  H    0.104646
    87  H    0.106844
    88  H    0.108441
    89  H    0.104534
    90  H    0.103076
 Sum of Mulliken charges =  -0.00000

 Dipole moment (field-independent basis, Debye):
    X=             -0.2319    Y=              2.5604    Z=              2.0900  Tot=              3.3132
 Quadrupole moment (field-independent basis, Debye-Ang):
   XX=           -246.3160   YY=           -249.7311   ZZ=           -268.6602
   XY=             -1.2626   XZ=              1.9835   YZ=             -6.5953

 Normal termination of Gaussian 09 at Fri Nov 25 09:53:43 2022.
