 Gaussian 09, Revision E.01,
 Gaussian 09:  ES64L-G09RevE.01 30-Nov-2015

 ----------------------------------------------------
 # b3lyp/6-311g(d,p) scrf=(solvent=cyclohexane) em=gd3bj
 ----------------------------------------------------

 ----------
 "Sketch 1"
 ----------
 Symbolic Z-matrix:
 Charge =  0 Multiplicity = 1

                         Standard orientation:
 ---------------------------------------------------------------------
 Center     Atomic      Atomic             Coordinates (Angstroms)
 Number     Number       Type             X           Y           Z
 ---------------------------------------------------------------------
      1          6           0       -1.659860   -3.745744   -1.054477
      2          6           0       -1.575592   -2.251607   -1.354796
      3          6           0       -0.319992   -1.641846   -1.487993
      4          6           0        0.833960   -2.417974   -1.358190
      5          6           0        0.876011   -3.785772   -1.137410
      6          7           0       -0.338072   -4.427730   -1.060587
      7          6           0        2.033579   -4.518061   -1.021008
      8          6           0        3.314343   -3.874144   -1.120278
      9          6           0        3.190659   -2.515022   -1.353710
     10          6           0        2.094836   -1.800655   -1.477379
     11          6           0        2.297046   -0.440390   -1.731758
     12          6           0        1.049710    0.355466   -1.902995
     13          6           0       -0.202002   -0.275215   -1.774646
     14          6           0       -1.369301    0.454163   -2.004339
     15          6           0       -1.284736    1.768693   -2.497535
     16          6           0       -0.061418    2.411460   -2.526114
     17          6           0        1.101684    1.705740   -2.264374
     18          6           0        0.057047    3.882568   -2.887167
     19          6           0       -1.257402    4.605232   -2.581393
     20          6           0       -2.369134    3.944531   -3.396537
     21          6           0       -2.563860    2.473777   -2.959039
     22          6           0       -2.628219   -0.121937   -1.748097
     23          6           0       -2.722023   -1.477210   -1.469992
     24          6           0       -3.593525    2.207447   -1.855006
     25          6           0       -3.905555    0.705388   -1.832211
     26          6           0       -4.073835   -2.154187   -1.308625
     27          6           0       -4.558061   -2.681125   -2.665953
     28          6           0       -5.780795   -3.596862   -2.547327
     29          6           0       -6.155642   -4.238425   -3.883103
     30          6           0       -3.684063    4.747483   -3.431716
     31          6           0       -3.565052    6.086674   -4.162962
     32          8           0        2.307471    2.362966   -2.424323
     33         16           0        4.727253   -1.755638   -1.485192
     34          6           0        3.600992   -0.117121   -1.776529
     35          6           0        4.576460   -4.678373   -0.986068
     36          6           0        5.003613   -5.226497   -2.354627
     37          6           0        6.281787   -6.069848   -2.289324
     38          6           0        6.724891   -6.579419   -3.661860
     39          1           0       -2.294386   -4.238579   -1.807588
     40          1           0       -2.106571   -3.889466   -0.059456
     41          1           0        1.979037   -5.603736   -0.856493
     42          1           0        0.879778    4.355917   -2.327628
     43          1           0        0.300528    3.992149   -3.959222
     44          1           0       -1.156368    5.675361   -2.828484
     45          1           0       -1.488330    4.548147   -1.503720
     46          1           0       -2.005074    3.906785   -4.442677
     47          1           0       -2.938168    1.941884   -3.856948
     48          1           0       -3.206294    2.546319   -0.880707
     49          1           0       -4.530296    2.762024   -2.027802
     50          1           0       -4.456874    0.445501   -2.753578
     51          1           0       -4.577391    0.496739   -0.985850
     52          1           0       -4.835484   -1.490048   -0.875961
     53          1           0       -4.005646   -2.991388   -0.595797
     54          1           0       -3.747006   -3.249638   -3.154837
     55          1           0       -4.792628   -1.837917   -3.338458
     56          1           0       -6.638930   -3.028330   -2.148466
     57          1           0       -5.561684   -4.393521   -1.813992
     58          1           0       -7.009062   -4.926298   -3.775288
     59          1           0       -5.307649   -4.817129   -4.285534
     60          1           0       -6.430015   -3.474697   -4.628176
     61          1           0       -4.044634    4.926662   -2.403592
     62          1           0       -4.460347    4.146561   -3.938941
     63          1           0       -2.875745    6.766666   -3.639432
     64          1           0       -4.543275    6.588319   -4.234038
     65          1           0       -3.183927    5.934906   -5.185091
     66          1           0        2.866997    1.804053   -2.948879
     67          1           0        4.093150    0.852324   -1.907833
     68          1           0        4.407413   -5.521006   -0.294180
     69          1           0        5.399780   -4.098717   -0.539481
     70          1           0        5.165950   -4.383577   -3.050170
     71          1           0        4.184921   -5.833971   -2.779410
     72          1           0        6.125545   -6.927184   -1.611084
     73          1           0        7.093041   -5.465155   -1.847863
     74          1           0        6.900319   -5.737372   -4.350600
     75          1           0        5.952579   -7.226045   -4.108292
     76          1           0        7.657975   -7.162457   -3.596528
     77          6           0        1.518556   -2.278507    2.290399
     78          6           0        1.507039   -0.780888    2.000589
     79          6           0        0.284697   -0.101970    1.898391
     80          6           0       -0.906489   -0.814759    2.051610
     81          6           0       -1.018761   -2.171553    2.313181
     82          7           0        0.160727   -2.866103    2.449817
     83          6           0       -2.213480   -2.840165    2.438272
     84          6           0       -3.458182   -2.137353    2.302713
     85          6           0       -3.263969   -0.787916    2.065728
     86          6           0       -2.133358   -0.131273    1.941421
     87          6           0       -2.267551    1.238697    1.696724
     88          6           0       -0.982487    1.975680    1.552834
     89          6           0        0.236048    1.278874    1.662723
     90          6           0        1.440791    1.977758    1.572007
     91          6           0        1.428419    3.382317    1.502514
     92          6           0        0.235555    4.045913    1.280951
     93          6           0       -0.964083    3.356490    1.333169
     94          6           0        0.191965    5.541463    1.017751
     95          6           0        1.528880    6.010315    0.439655
     96          6           0        2.628322    5.676707    1.447829
     97          6           0        2.751321    4.145259    1.630142
     98          6           0        2.664281    1.281609    1.544375
     99          6           0        2.689293   -0.079116    1.814165
    100          6           0        3.740084    3.412026    0.714437
    101          6           0        3.980564    2.005191    1.278156
    102          6           0        4.009653   -0.822228    1.933673
    103          6           0        4.512848   -0.748814    3.380150
    104          6           0        5.832988   -1.497503    3.583393
    105          6           0        6.317239   -1.446993    5.032057
    106          6           0        3.975952    6.364373    1.157282
    107          6           0        3.931741    7.885631    1.300136
    108          8           0       -2.138989    4.079386    1.197828
    109         16           0       -4.759104    0.049177    1.927124
    110          6           0       -3.554780    1.623299    1.641589
    111          6           0       -4.768590   -2.866273    2.397647
    112          6           0       -5.347121   -2.775804    3.815154
    113          6           0       -6.764645   -3.352364    3.900743
    114          6           0       -7.375989   -3.204020    5.293576
    115          1           0        2.080764   -2.465288    3.218969
    116          1           0        2.011910   -2.804129    1.459072
    117          1           0       -2.215423   -3.919911    2.637477
    118          1           0       -0.624324    5.793452    0.320971
    119          1           0       -0.016289    6.087219    1.956014
    120          1           0        1.482120    7.092195    0.236485
    121          1           0        1.731658    5.517215   -0.526363
    122          1           0        2.286699    6.076485    2.423911
    123          1           0        3.129940    3.996106    2.661534
    124          1           0        3.349302    3.361172   -0.315059
    125          1           0        4.706936    3.938074    0.653499
    126          1           0        4.557137    2.093319    2.216604
    127          1           0        4.606235    1.446688    0.564690
    128          1           0        4.776958   -0.421242    1.256370
    129          1           0        3.907074   -1.877703    1.637884
    130          1           0        3.752203   -1.170116    4.060863
    131          1           0        4.645852    0.305908    3.678004
    132          1           0        6.605861   -1.067720    2.922035
    133          1           0        5.705403   -2.550970    3.277003
    134          1           0        7.264812   -1.994682    5.160007
    135          1           0        5.574423   -1.899240    5.708657
    136          1           0        6.483788   -0.407169    5.356920
    137          1           0        4.320278    6.109836    0.139504
    138          1           0        4.736658    5.971081    1.855300
    139          1           0        3.244237    8.339305    0.569928
    140          1           0        4.928985    8.324789    1.135856
    141          1           0        3.598099    8.175748    2.309463
    142          1           0       -2.664849    3.918604    1.971799
    143          1           0       -4.000005    2.603861    1.442582
    144          1           0       -4.628748   -3.926402    2.129141
    145          1           0       -5.497903   -2.476991    1.667849
    146          1           0       -5.376775   -1.723720    4.147290
    147          1           0       -4.692382   -3.311842    4.524882
    148          1           0       -6.745669   -4.416560    3.609305
    149          1           0       -7.402419   -2.833733    3.163183
    150          1           0       -7.423343   -2.141938    5.583388
    151          1           0       -6.769119   -3.733546    6.045509
    152          1           0       -8.397938   -3.612609    5.334395
 ---------------------------------------------------------------------

 SCF Done:  E(RB3LYP) =  -3769.92775862     A.U. after   25 cycles

 The electronic state is 1-A.
 Alpha  occ. eigenvalues --  -88.90086 -88.90082 -19.17923 -19.17847 -14.30424
 Alpha  occ. eigenvalues --  -14.30260 -10.24574 -10.24557 -10.22560 -10.22517
 Alpha  occ. eigenvalues --  -10.21159 -10.21053 -10.20930 -10.20861 -10.20655
 Alpha  occ. eigenvalues --  -10.20634 -10.20570 -10.20528 -10.20186 -10.20148
 Alpha  occ. eigenvalues --  -10.20048 -10.20017 -10.19459 -10.19335 -10.19284
 Alpha  occ. eigenvalues --  -10.19213 -10.19213 -10.19203 -10.19160 -10.19123
 Alpha  occ. eigenvalues --  -10.19120 -10.18994 -10.18970 -10.18968 -10.18949
 Alpha  occ. eigenvalues --  -10.18857 -10.18818 -10.18797 -10.18779 -10.18725
 Alpha  occ. eigenvalues --  -10.18709 -10.18628 -10.18526 -10.18518 -10.18462
 Alpha  occ. eigenvalues --  -10.18389 -10.18367 -10.18294 -10.18279 -10.18255
 Alpha  occ. eigenvalues --  -10.18225 -10.18180 -10.18171 -10.18162 -10.18152
 Alpha  occ. eigenvalues --  -10.18117 -10.18057 -10.17957 -10.17943 -10.17909
 Alpha  occ. eigenvalues --  -10.17901 -10.17869 -10.17849 -10.17821 -10.17801
 Alpha  occ. eigenvalues --  -10.17749 -10.17712 -10.17631 -10.17473 -10.17421
 Alpha  occ. eigenvalues --  -10.17332 -10.17316 -10.17248 -10.17247 -10.17198
 Alpha  occ. eigenvalues --  -10.17179  -7.96009  -7.96004  -5.92445  -5.92439
 Alpha  occ. eigenvalues --   -5.92136  -5.92130  -5.91625  -5.91624  -1.06402
 Alpha  occ. eigenvalues --   -1.06262  -0.92297  -0.92100  -0.89028  -0.88907
 Alpha  occ. eigenvalues --   -0.88309  -0.88217  -0.84918  -0.84767  -0.83789
 Alpha  occ. eigenvalues --   -0.83660  -0.81885  -0.81811  -0.80364  -0.80282
 Alpha  occ. eigenvalues --   -0.80163  -0.79982  -0.79299  -0.79211  -0.78535
 Alpha  occ. eigenvalues --   -0.78450  -0.76818  -0.76693  -0.75857  -0.75762
 Alpha  occ. eigenvalues --   -0.74744  -0.74609  -0.73738  -0.73624  -0.72662
 Alpha  occ. eigenvalues --   -0.72517  -0.71802  -0.71747  -0.71103  -0.70978
 Alpha  occ. eigenvalues --   -0.70773  -0.70689  -0.68367  -0.68234  -0.65210
 Alpha  occ. eigenvalues --   -0.65123  -0.64703  -0.64587  -0.64505  -0.64448
 Alpha  occ. eigenvalues --   -0.63030  -0.62861  -0.62057  -0.61923  -0.61628
 Alpha  occ. eigenvalues --   -0.61474  -0.60863  -0.60776  -0.60134  -0.60110
 Alpha  occ. eigenvalues --   -0.58951  -0.58860  -0.57888  -0.57806  -0.57625
 Alpha  occ. eigenvalues --   -0.57511  -0.57384  -0.57304  -0.54834  -0.54720
 Alpha  occ. eigenvalues --   -0.54227  -0.54124  -0.52794  -0.52747  -0.51871
 Alpha  occ. eigenvalues --   -0.51565  -0.51058  -0.50884  -0.50188  -0.50033
 Alpha  occ. eigenvalues --   -0.49072  -0.48970  -0.48022  -0.47910  -0.47230
 Alpha  occ. eigenvalues --   -0.47038  -0.46492  -0.46382  -0.46021  -0.46006
 Alpha  occ. eigenvalues --   -0.45898  -0.45271  -0.45069  -0.44970  -0.44849
 Alpha  occ. eigenvalues --   -0.44631  -0.44429  -0.44236  -0.43813  -0.43666
 Alpha  occ. eigenvalues --   -0.43620  -0.43258  -0.43106  -0.42984  -0.42979
 Alpha  occ. eigenvalues --   -0.42740  -0.42525  -0.42421  -0.42146  -0.42039
 Alpha  occ. eigenvalues --   -0.42003  -0.41760  -0.41388  -0.41312  -0.41154
 Alpha  occ. eigenvalues --   -0.41050  -0.40831  -0.40780  -0.40694  -0.40535
 Alpha  occ. eigenvalues --   -0.40446  -0.40383  -0.39990  -0.39867  -0.39453
 Alpha  occ. eigenvalues --   -0.39249  -0.39059  -0.38918  -0.38625  -0.38513
 Alpha  occ. eigenvalues --   -0.38043  -0.37935  -0.37897  -0.37795  -0.37690
 Alpha  occ. eigenvalues --   -0.37470  -0.37007  -0.36832  -0.36459  -0.36267
 Alpha  occ. eigenvalues --   -0.35994  -0.35901  -0.35681  -0.35609  -0.35550
 Alpha  occ. eigenvalues --   -0.35374  -0.35329  -0.35180  -0.34900  -0.34597
 Alpha  occ. eigenvalues --   -0.34559  -0.34399  -0.34307  -0.34239  -0.34037
 Alpha  occ. eigenvalues --   -0.34012  -0.33918  -0.33832  -0.33695  -0.33493
 Alpha  occ. eigenvalues --   -0.33300  -0.33211  -0.33106  -0.33054  -0.32985
 Alpha  occ. eigenvalues --   -0.32809  -0.32562  -0.32465  -0.32249  -0.32144
 Alpha  occ. eigenvalues --   -0.31960  -0.31914  -0.31727  -0.31692  -0.31211
 Alpha  occ. eigenvalues --   -0.31012  -0.30722  -0.30690  -0.30208  -0.29650
 Alpha  occ. eigenvalues --   -0.29585  -0.29369  -0.29267  -0.29150  -0.28799
 Alpha  occ. eigenvalues --   -0.28626  -0.25859  -0.25371  -0.24862  -0.24096
 Alpha  occ. eigenvalues --   -0.23972  -0.23685  -0.22890  -0.22611  -0.21925
 Alpha  occ. eigenvalues --   -0.21857  -0.18832  -0.18780  -0.13795
 Alpha virt. eigenvalues --   -0.11492  -0.06062  -0.05916  -0.02001  -0.01827
 Alpha virt. eigenvalues --   -0.01143  -0.01031  -0.00210  -0.00125   0.00592
 Alpha virt. eigenvalues --    0.00688   0.05337   0.05477   0.06450   0.07132

 Mulliken charges:
               1
     1  C   -0.225872
     2  C    0.048867
     3  C    0.038287
     4  C    0.065442
     5  C    0.276466
     6  N   -0.560326
     7  C   -0.226920
     8  C    0.164380
     9  C   -0.313351
    10  C    0.085058
    11  C    0.278077
    12  C    0.071822
    13  C    0.120455
    14  C    0.008322
    15  C    0.019124
    16  C    0.082372
    17  C    0.141637
    18  C   -0.350595
    19  C   -0.298289
    20  C   -0.072417
    21  C   -0.173392
    22  C    0.067325
    23  C    0.022438
    24  C   -0.294671
    25  C   -0.370793
    26  C   -0.365425
    27  C   -0.257699
    28  C   -0.246804
    29  C   -0.441911
    30  C   -0.262452
    31  C   -0.450455
    32  O   -0.667650
    33  S    0.144137
    34  C   -0.568048
    35  C   -0.383783
    36  C   -0.248007
    37  C   -0.247075
    38  C   -0.442366
    39  H    0.172557
    40  H    0.187580
    41  H    0.136983
    42  H    0.166425
    43  H    0.146919
    44  H    0.130429
    45  H    0.162438
    46  H    0.116851
    47  H    0.136579
    48  H    0.168289
    49  H    0.130678
    50  H    0.149093
    51  H    0.173465
    52  H    0.152258
    53  H    0.150411
    54  H    0.139401
    55  H    0.137979
    56  H    0.130833
    57  H    0.132218
    58  H    0.141712
    59  H    0.143806
    60  H    0.141020
    61  H    0.138779
    62  H    0.129526
    63  H    0.147298
    64  H    0.142417
    65  H    0.141012
    66  H    0.414649
    67  H    0.165047
    68  H    0.160067
    69  H    0.160258
    70  H    0.147180
    71  H    0.143350
    72  H    0.133001
    73  H    0.131860
    74  H    0.143229
    75  H    0.144055
    76  H    0.142377
    77  C   -0.226486
    78  C    0.042508
    79  C    0.040320
    80  C    0.069680
    81  C    0.276352
    82  N   -0.561961
    83  C   -0.249610
    84  C    0.174639
    85  C   -0.310421
    86  C    0.093349
    87  C    0.274433
    88  C    0.071522
    89  C    0.129118
    90  C    0.008756
    91  C    0.017523
    92  C    0.077724
    93  C    0.146178
    94  C   -0.340337
    95  C   -0.294728
    96  C   -0.073179
    97  C   -0.173790
    98  C    0.072260
    99  C    0.024985
   100  C   -0.299796
   101  C   -0.367672
   102  C   -0.355992
   103  C   -0.258494
   104  C   -0.244271
   105  C   -0.441816
   106  C   -0.261850
   107  C   -0.451019
   108  O   -0.680279
   109  S    0.139561
   110  C   -0.560051
   111  C   -0.385629
   112  C   -0.252594
   113  C   -0.247301
   114  C   -0.442459
   115  H    0.177806
   116  H    0.185989
   117  H    0.139156
   118  H    0.162214
   119  H    0.146943
   120  H    0.133695
   121  H    0.152627
   122  H    0.118391
   123  H    0.137424
   124  H    0.169406
   125  H    0.132695
   126  H    0.152946
   127  H    0.158681
   128  H    0.154978
   129  H    0.149513
   130  H    0.137874
   131  H    0.136247
   132  H    0.130359
   133  H    0.132756
   134  H    0.141368
   135  H    0.143562
   136  H    0.140093
   137  H    0.137088
   138  H    0.130580
   139  H    0.147766
   140  H    0.143183
   141  H    0.141592
   142  H    0.418035
   143  H    0.162791
   144  H    0.158226
   145  H    0.160711
   146  H    0.151241
   147  H    0.142389
   148  H    0.133037
   149  H    0.131761
   150  H    0.143627
   151  H    0.143679
   152  H    0.142463
 Sum of Mulliken charges =  -0.00000

 Dipole moment (field-independent basis, Debye):
    X=              0.3628    Y=              5.0848    Z=             -0.6263  Tot=              5.1361
 Quadrupole moment (field-independent basis, Debye-Ang):
   XX=           -430.2549   YY=           -461.6643   ZZ=           -461.2483
   XY=              0.3938   XZ=              1.2846   YZ=              2.6620

 Normal termination of Gaussian 09 at Mon Dec 19 11:13:55 2022.
