 Gaussian 09, Revision E.01,
 Gaussian 09:  ES64L-G09RevE.01 30-Nov-2015

 -----------------------------------------------------------
 # b3lyp/6-311g(d,p) scrf=(smd,solvent=cyclohexane) em=gd3bj
 -----------------------------------------------------------

 ---
 as2
 ---
 Symbolic Z-matrix:
 Charge =  0 Multiplicity = 2

                         Standard orientation:
 ---------------------------------------------------------------------
 Center     Atomic      Atomic             Coordinates (Angstroms)
 Number     Number       Type             X           Y           Z
 ---------------------------------------------------------------------
      1          6           0        0.679759    3.351961   -0.646683
      2          6           0       -0.228292    2.136255   -0.487585
      3          6           0        0.344165    0.868307   -0.310288
      4          6           0        1.735324    0.738739   -0.328715
      5          6           0        2.648895    1.778523   -0.410288
      6          7           0        2.116896    3.047909   -0.402159
      7          6           0        4.010795    1.610280   -0.491254
      8          6           0        4.579150    0.290055   -0.523977
      9          6           0        3.606017   -0.692216   -0.440402
     10          6           0        2.304171   -0.550350   -0.334523
     11          6           0        1.576702   -1.743776   -0.273017
     12          6           0        0.101670   -1.571759   -0.151505
     13          6           0       -0.452375   -0.278314   -0.196218
     14          6           0       -1.837733   -0.122499   -0.172958
     15          6           0       -2.658541   -1.229411    0.104567
     16          6           0       -2.118595   -2.502557    0.095384
     17          6           0       -0.745778   -2.675513   -0.006891
     18          6           0       -2.992198   -3.741060    0.225019
     19          6           0       -4.421252   -3.441255   -0.236253
     20          6           0       -4.964277   -2.284125    0.602597
     21          6           0       -4.151800   -0.995434    0.341441
     22          6           0       -2.415296    1.125374   -0.482445
     23          6           0       -1.607734    2.248545   -0.595927
     24          6           0       -4.604831   -0.096503   -0.816822
     25          6           0       -3.923852    1.271805   -0.664139
     26          6           0       -2.215098    3.621796   -0.833878
     27          6           0       -2.599764    4.268392    0.503511
     28          6           0       -3.230155    5.653608    0.323774
     29          6           0       -3.644786    6.297707    1.646894
     30          6           0       -6.485507   -2.074413    0.477879
     31          6           0       -7.320341   -3.228722    1.039337
     32          8           0       -0.247481   -3.961664    0.062853
     33         16           0        4.293943   -2.266952   -0.496802
     34          6           0        2.366339   -2.828397   -0.347817
     35          6           0        6.066889    0.103695   -0.639885
     36          6           0        6.693775   -0.053041    0.750439
     37          6           0        8.216996   -0.216142    0.703071
     38          6           0        8.833565   -0.360141    2.094803
     39          1           0        0.372703    4.138993    0.060304
     40          1           0        0.586281    3.732414   -1.676713
     41          1           0        4.665560    2.491070   -0.547376
     42          1           0       -2.578822   -4.573275   -0.368227
     43          1           0       -3.010651   -4.082185    1.276146
     44          1           0       -5.041936   -4.345808   -0.121981
     45          1           0       -4.437036   -3.180185   -1.308472
     46          1           0       -4.777301   -2.552280    1.661780
     47          1           0       -4.261324   -0.383081    1.259252
     48          1           0       -4.351805   -0.550700   -1.790492
     49          1           0       -5.697781    0.049194   -0.816640
     50          1           0       -4.359517    1.786890    0.210597
     51          1           0       -4.162397    1.880392   -1.550668
     52          1           0       -3.096989    3.575212   -1.490163
     53          1           0       -1.516069    4.284532   -1.367596
     54          1           0       -1.705831    4.358370    1.145638
     55          1           0       -3.308442    3.618756    1.045719
     56          1           0       -4.115556    5.568971   -0.331316
     57          1           0       -2.515680    6.315356   -0.197108
     58          1           0       -4.089306    7.292512    1.483710
     59          1           0       -2.777311    6.423979    2.314692
     60          1           0       -4.390418    5.678423    2.170957
     61          1           0       -6.759495   -1.914459   -0.579690
     62          1           0       -6.765802   -1.152124    1.018377
     63          1           0       -7.143669   -4.161486    0.482117
     64          1           0       -8.396493   -3.001182    0.977731
     65          1           0       -7.074919   -3.412495    2.097630
     66          1           0        0.530581   -3.937026    0.604915
     67          1           0        2.117914   -3.894610   -0.376996
     68          1           0        6.510476    0.982370   -1.137938
     69          1           0        6.328692   -0.757232   -1.276837
     70          1           0        6.254915   -0.925286    1.265945
     71          1           0        6.447284    0.831260    1.364852
     72          1           0        8.662743    0.657019    0.194262
     73          1           0        8.471192   -1.100725    0.093080
     74          1           0        8.434676   -1.248412    2.610510
     75          1           0        8.604843    0.522383    2.713852
     76          1           0        9.929121   -0.462838    2.043785
 ---------------------------------------------------------------------

 SCF Done:  E(UB3LYP) =  -1885.35413148     A.U. after   23 cycles

 The electronic state is 2-A.
 Alpha  occ. eigenvalues --  -88.86887 -19.15039 -14.29599 -10.23574 -10.21080
 Alpha  occ. eigenvalues --  -10.20286 -10.19588 -10.19517 -10.19443 -10.18883
 Alpha  occ. eigenvalues --  -10.18750 -10.18255 -10.18243 -10.18105 -10.18048
 Alpha  occ. eigenvalues --  -10.17936 -10.17865 -10.17699 -10.17684 -10.17623
 Alpha  occ. eigenvalues --  -10.17497 -10.17448 -10.17330 -10.17246 -10.17074
 Alpha  occ. eigenvalues --  -10.17006 -10.16867 -10.16813 -10.16670 -10.16558
 Alpha  occ. eigenvalues --  -10.16498 -10.16437 -10.16408 -10.16261 -10.16157
 Alpha  occ. eigenvalues --  -10.15767 -10.15677 -10.15483  -7.95377  -5.91701
 Alpha  occ. eigenvalues --   -5.91377  -5.90903  -1.06812  -0.93241  -0.89703
 Alpha  occ. eigenvalues --   -0.89620  -0.85509  -0.84401  -0.82344  -0.81163
 Alpha  occ. eigenvalues --   -0.80654  -0.79786  -0.78989  -0.77229  -0.76402
 Alpha  occ. eigenvalues --   -0.75220  -0.74165  -0.73221  -0.72221  -0.71679
 Alpha  occ. eigenvalues --   -0.71355  -0.68836  -0.65834  -0.65320  -0.65043
 Alpha  occ. eigenvalues --   -0.63485  -0.62523  -0.62269  -0.61333  -0.60611
 Alpha  occ. eigenvalues --   -0.59360  -0.58332  -0.57819  -0.57666  -0.55391
 Alpha  occ. eigenvalues --   -0.54711  -0.53460  -0.52395  -0.51608  -0.50842
 Alpha  occ. eigenvalues --   -0.49698  -0.48584  -0.47724  -0.46800  -0.46419
 Alpha  occ. eigenvalues --   -0.46312  -0.45625  -0.45257  -0.45111  -0.44242
 Alpha  occ. eigenvalues --   -0.43999  -0.43695  -0.43445  -0.43122  -0.42724
 Alpha  occ. eigenvalues --   -0.42424  -0.42001  -0.41730  -0.41364  -0.41163
 Alpha  occ. eigenvalues --   -0.41018  -0.40486  -0.40022  -0.39521  -0.39410
 Alpha  occ. eigenvalues --   -0.38508  -0.38421  -0.38118  -0.37526  -0.36927
 Alpha  occ. eigenvalues --   -0.36530  -0.36310  -0.36063  -0.35816  -0.35332
 Alpha  occ. eigenvalues --   -0.35096  -0.35018  -0.34698  -0.34316  -0.34161
 Alpha  occ. eigenvalues --   -0.33819  -0.33597  -0.33421  -0.32878  -0.32555
 Alpha  occ. eigenvalues --   -0.32395  -0.32277  -0.31679  -0.31449  -0.30777
 Alpha  occ. eigenvalues --   -0.30472  -0.29890  -0.29477  -0.27083  -0.25371
 Alpha  occ. eigenvalues --   -0.24723  -0.24087  -0.23478  -0.20617  -0.17245
 Alpha virt. eigenvalues --   -0.06926  -0.02571  -0.01993  -0.01547  -0.00601
 Alpha virt. eigenvalues --    0.03241   0.04313   0.04478   0.04877   0.04943
 Alpha virt. eigenvalues --    0.05350   0.05567   0.05949   0.06180   0.06378

  Beta  occ. eigenvalues --  -88.86861 -19.15028 -14.28271 -10.23527 -10.21158
  Beta  occ. eigenvalues --  -10.20348 -10.19775 -10.19406 -10.19308 -10.18915
  Beta  occ. eigenvalues --  -10.18876 -10.18212 -10.18200 -10.17987 -10.17918
  Beta  occ. eigenvalues --  -10.17868 -10.17781 -10.17712 -10.17623 -10.17617
  Beta  occ. eigenvalues --  -10.17531 -10.17454 -10.17384 -10.17105 -10.17073
  Beta  occ. eigenvalues --  -10.17014 -10.16864 -10.16811 -10.16666 -10.16561
  Beta  occ. eigenvalues --  -10.16498 -10.16448 -10.16409 -10.16263 -10.16157
  Beta  occ. eigenvalues --  -10.15767 -10.15677 -10.15483  -7.95354  -5.91684
  Beta  occ. eigenvalues --   -5.91367  -5.90822  -1.06781  -0.92700  -0.89566
  Beta  occ. eigenvalues --   -0.88670  -0.85374  -0.84284  -0.82300  -0.80770
  Beta  occ. eigenvalues --   -0.80511  -0.79626  -0.78929  -0.77129  -0.76325
  Beta  occ. eigenvalues --   -0.75183  -0.74096  -0.73136  -0.72182  -0.71469
  Beta  occ. eigenvalues --   -0.71213  -0.68777  -0.65635  -0.65028  -0.64983
  Beta  occ. eigenvalues --   -0.63442  -0.62475  -0.61997  -0.61254  -0.60576
  Beta  occ. eigenvalues --   -0.59334  -0.58248  -0.57811  -0.57661  -0.55333
  Beta  occ. eigenvalues --   -0.54678  -0.53288  -0.52255  -0.51537  -0.50738
  Beta  occ. eigenvalues --   -0.49609  -0.48518  -0.47615  -0.46727  -0.46352
  Beta  occ. eigenvalues --   -0.45720  -0.45564  -0.45038  -0.44952  -0.44149
  Beta  occ. eigenvalues --   -0.43856  -0.43575  -0.43346  -0.42971  -0.42607
  Beta  occ. eigenvalues --   -0.42362  -0.41874  -0.41620  -0.41209  -0.41114
  Beta  occ. eigenvalues --   -0.40987  -0.40387  -0.39882  -0.39445  -0.39247
  Beta  occ. eigenvalues --   -0.38453  -0.38333  -0.38107  -0.37479  -0.36880
  Beta  occ. eigenvalues --   -0.36473  -0.36202  -0.35960  -0.35662  -0.35103
  Beta  occ. eigenvalues --   -0.34969  -0.34730  -0.34584  -0.34252  -0.34069
  Beta  occ. eigenvalues --   -0.33802  -0.33567  -0.33375  -0.32849  -0.32506
  Beta  occ. eigenvalues --   -0.32366  -0.32246  -0.31584  -0.31375  -0.30387
  Beta  occ. eigenvalues --   -0.30064  -0.29852  -0.29369  -0.25951  -0.24794
  Beta  occ. eigenvalues --   -0.24236  -0.23352  -0.22574  -0.19016
  Beta virt. eigenvalues --   -0.09340  -0.06429  -0.02521  -0.01715  -0.00985
  Beta virt. eigenvalues --   -0.00134   0.03451   0.04377   0.04539   0.04926
  Beta virt. eigenvalues --    0.05273   0.05515   0.05583   0.06004   0.06337

 Mulliken charges and spin densities:
               1          2
     1  C    0.038411  -0.057302
     2  C   -0.162101   0.092237
     3  C    0.171294  -0.064246
     4  C   -0.100355   0.227069
     5  C    0.115938  -0.124554
     6  N   -0.417328   0.634042
     7  C   -0.010089   0.175031
     8  C   -0.030989  -0.102922
     9  C   -0.279349   0.135093
    10  C    0.005731  -0.084598
    11  C    0.153985   0.030149
    12  C   -0.048573  -0.024341
    13  C    0.101156   0.036086
    14  C    0.078580  -0.030239
    15  C   -0.039634   0.032443
    16  C   -0.100148  -0.022137
    17  C    0.128604   0.029587
    18  C   -0.164490   0.001623
    19  C   -0.176266  -0.000199
    20  C   -0.186202   0.000172
    21  C   -0.143335  -0.002306
    22  C   -0.089180   0.087735
    23  C   -0.095707  -0.045534
    24  C   -0.174843   0.001970
    25  C   -0.181372  -0.007564
    26  C   -0.251079   0.004040
    27  C   -0.176477  -0.001095
    28  C   -0.232693  -0.000299
    29  C   -0.298190  -0.000016
    30  C   -0.212453  -0.000024
    31  C   -0.291062  -0.000008
    32  O   -0.379335   0.002550
    33  S    0.179259   0.044062
    34  C   -0.338457  -0.054212
    35  C   -0.231282   0.006140
    36  C   -0.187240  -0.002830
    37  C   -0.228713  -0.000851
    38  C   -0.299880  -0.000011
    39  H    0.144314   0.030470
    40  H    0.152898   0.059014
    41  H    0.082009  -0.010080
    42  H    0.128362  -0.000356
    43  H    0.124004  -0.000951
    44  H    0.111985  -0.000012
    45  H    0.113617  -0.000015
    46  H    0.117330   0.000000
    47  H    0.136404   0.000856
    48  H    0.118471  -0.000083
    49  H    0.112979  -0.000024
    50  H    0.130508   0.004473
    51  H    0.133273   0.002026
    52  H    0.119347  -0.000577
    53  H    0.120645  -0.000243
    54  H    0.111554   0.000155
    55  H    0.112040   0.000197
    56  H    0.106412   0.000020
    57  H    0.108936   0.000075
    58  H    0.109576  -0.000044
    59  H    0.106413  -0.000001
    60  H    0.103511   0.000001
    61  H    0.111576   0.000007
    62  H    0.108357   0.000003
    63  H    0.106235  -0.000001
    64  H    0.110456  -0.000000
    65  H    0.103940   0.000001
    66  H    0.247818   0.000008
    67  H    0.112745   0.002742
    68  H    0.130146  -0.000607
    69  H    0.140764  -0.001725
    70  H    0.123322  -0.000011
    71  H    0.115930   0.000003
    72  H    0.107531  -0.000002
    73  H    0.108432   0.000044
    74  H    0.106672   0.000002
    75  H    0.106061   0.000011
    76  H    0.109285  -0.000119
 Sum of Mulliken charges =  -0.00000   1.00000

 Dipole moment (field-independent basis, Debye):
    X=             -3.5734    Y=             -0.2538    Z=              0.5229  Tot=              3.6204
 Quadrupole moment (field-independent basis, Debye-Ang):
   XX=           -213.4977   YY=           -233.0075   ZZ=           -238.6610
   XY=             -6.5274   XZ=              0.7915   YZ=             -5.7974

 Normal termination of Gaussian 09 at Fri Nov 25 10:48:55 2022.
